Compound,LogKp,MW,LogP,HBD,HBA,LogS,TPSA,MV
1-Butanol,-7.778,74.123,0.805,1,1,-0.21,20.23,87.62
1-Decanol,-9.653,158.285,3.473,1,1,-3.451,"	20.23",188.43
1-Dodecyl glycidyl ether,-9.036,242.403,4.846,0,2,-5.37,21.76,271.57
1-Heptanol,-8.158,116.204,2.139,1,1,-1.844,20.23,138.03
1-Hexanol,-7.84,102.177,1.694,1,1,-1.303,20.23,121.22
1-Hexyl-2-Pyrrolidone,-5.028,169.268,1.857,0,1,-2.319,20.31,184.54
1-Nonanol,-9.079,144.258,3.028,1,1,-2.918,20.23,171.63
1-Octanol,-8.556,130.231,2.584,1,1,-2.383,20.23,154.83
1-Octyl-2-Pyrrolidone,-4.827,197.322,2.746,0,1,-3.37,20.31,218.14
1-Pentanol,-7.849,88.15,1.25,1,1,-0.758,20.23,104.42
1-Propanol,-7.352,60.096,0.361,1,1,0.341,20.23,70.82
"2,3-Butanediol",-7.857,90.122,-0.376,2,2,0.363,40.46,95.45
2-Ethoxyethanol,-7.687,90.122,-0.209,1,2,0.517,29.46,96.6
2-Ethylhexanol,-7.687,130.231,2.504,1,1,-2.332,20.23,154.61
2-Phenoxyethanol,-6.43,138.166,1.125,1,2,-1.24,29.46,134.65
2-Phenylphenol,-6.355,170.211,3.317,1,1,-3.406,"	20.23",163.47
2-Propoxyethanol,-6.923,104.149,0.314,1,2,0.097,29.46,113.41
"4,4'-Methylenedianiline",-6.219,198.269,2.407,2,2,-3.028,52.04,194.83
4-Cyanophenol,-5.731,119.123,1.526,1,2,-1.221,44.02,108.92
5-Aminolevulinic acid,-7.711,131.131,-3.253,2,4,0.555,80.39,120.31
5-Fluorouracil,-8.015,130.078,-0.656,2,2,-1.196,58.2,96.91
Acetylsalicylic acid,-5.696,180.159,1.238,1,3,-1.849,63.6,155.57
Acyclovir,-7.079,225.208,-1.032,3,7,-1.394,114.76,187.75
Amphetamine,-8.409,135.21,1.804,1,1,-1.4,26.02,145.52
Aspartic acid,-7.585,133.103,-3.504,3,5,0.364,100.62,111.56
Atenolol,-7.857,266.341,0.425,3,4,-1.572,84.58,260.9
Benzene,-4.511,78.114,1.973,0,0,-1.266,0,84.04
Benzoic acid,-5.156,122.123,1.631,1,2,-1.453,37.3,111.05
Betamethasone,-7.153,392.467,1.682,3,5,-3.947,94.83,358.07
Betamethasone-17-valerate,-5.525,476.585,3.712,2,5,-5.675,100.9,444.99
Bisoprolol Fumerate,-7.125,325.449,2.196,2,5,-2.158,"	59.95",332.15
Bisphenol A diglycidyl ether,-9.875,340.419,4.019,0,4,-5.036,43.52,320.2
Boric acid,-7.199,61.83,-0.509,3,3,1.829,60.69,74.73
Butan-2-one,-5.903,72.107,0.807,0,1,-0.028,17.07,81.54
Butoxyethanol,-6.364,118.176,0.758,1,2,-0.444,29.46,130.21
Butyl 4-hydroxybenzoate,-4.538,194.23,2.997,1,2,-2.571,"	46.53",187
Butyl p-aminobenzoate,-4.607,193.246,2.472,1,2,-2.803,52.32,190.27
Caffeine,-6.828,194.194,-0.546,0,3,-0.437,58.44,167.63
Celiprolol Hydrochloride,-6.785,415.96,1.498,3,5,-3.495,"	90.9",376.51
Chlorpyrifos,-7.158,350.57,4.784,0,1,-6.057,40.58,251.4
Clotrimazole,-9.255,344.84,5.839,0,1,-5.691,"	17.82",309.52
Codeine,-7.866,299.37,1.343,1,4,-1.828,41.93,274.21
Corticosterone,-8.206,346.467,2.023,2,4,-3.681,74.6,335.37
Cytarabine,-8.856,243.219,-2.798,4,7,-0.535,128.61,201.84
Dexamethasone,-7.75,392.467,1.682,3,5,-3.947,94.83,358.07
Diclofenac,-6.556,296.15,4.259,2,3,-4.298,49.33,238.73
Diethyl ether,-5.352,74.123,0.838,0,1,0.054,"	9.23",88.34
Dimethylethylamine,-6.079,73.139,0.547,0,1,0.527,3.24,91.9
Ethanol,-6.699,46.069,-0.162,1,1,0.77,20.23,54.02
Ethyl 3-ethoxypropionate,-6.669,146.186,0.699,0,2,-0.451,"	35.53",149.92
Ethyl p-aminobenzoate,-5.255,165.192,1.505,1,2,-1.875,"	52.32",156.66
Etorphine,-6,411.542,2.472,2,5,-2.923,"	62.16",387.59
Flufenamic acid,-6.111,281.234,5.249,2,3,-4.34,49.33,226.15
Flurbiprofen,-5.331,244.265,3.944,1,2,-4.236,"	37.3",220.77
Glyphosate,-6.894,169.073,-3.099,4,6,2.058,106.86,130.02
Haloperidol,-7.03,375.87,3.661,1,3,-4.396,40.54,336.98
Histidine,-7.812,155.157,-3.616,3,4,-0.444,92,136.79
Hydrocortisone,-9.195,362.466,1.275,3,5,-2.949,94.83,343.06
Hydromorphone,-8.38,285.343,1.475,1,4,-1.632,49.77,257
Hydroquinone,-8.586,110.112,1.366,2,2,-0.52,"	40.46",100.08
Ibuprofen,-4.996,206.285,3.844,1,2,-3.543,37.3,211.19
Indomethacin,-6.997,357.79,3.53,1,4,-4.252,68.53,303.24
Ketorolac,-5.799,255.273,2.283,1,3,-2.735,59.3,226.39
L-alanyl-L-tryptophan,-8.38,275.308,-1.625,4,4,-2.892,108.21,249.72
Levosimendan,-7.954,280.291,2.162,2,6,-2.783,113.43,247.42
Lidocaine,-7.021,234.343,2.843,1,2,-2.636,32.34,244.86
Lindane,-8.784,290.81,4.346,0,0,-4.211,0,183.97
Lysine,-7.328,146.19,-3.215,3,4,0.116,89.34,146.25
Malathion,-4.249,330.35,1.857,0,2,-2.657,71.06,275.37
Mannitol,-7.923,182.172,-3.73,6,6,1.16,"	121.38",161.66
Meperidine,-5.988,247.338,2.456,0,2,-1.314,29.54,247.59
Methanol,-5.539,32.042,-0.519,1,1,1.111,"	20.23",37.21
Methotrexate,-7.503,454.447,-0.236,5,12,-3.182,210.54,387.36
Methyl nicotinate,-5.966,137.138,0.759,0,2,-0.504,39.19,124.42
Methyl p-aminobenzoate,-5.195,151.165,1.148,1,2,-1.52,52.32,139.86
Metoprolol,-6.637,267.369,1.759,2,4,-1.696,50.72,272.98
Morphine,-9.352,285.343,0.895,2,4,-1.415,52.93,256.68
"N,N-Diethyl-m-toluamide",-8.352,191.274,2.498,0,1,-2.856,20.31,199.1
n-Nitrosodiethanolamine,-5.944,134.135,-1.342,2,4,0.256,73.13,123.49
"N4-acetyl-4-amino-1-[(2R, 3S, 4R, 5R)-3-4-dihydroxy-5(hydroxymethyl)oxolan-2-yl] pyrimidin-2-one",-6.889,285.256,-2.866,4,7,-0.828,131.69,238.49
Naphthol,-5.141,144.173,2.659,1,1,-2.857,20.23,136.05
Naproxen,-6.096,230.263,2.986,1,3,-3.447,46.53,213.97
Nicorandil,-7.131,211.177,-0.162,1,5,-1.582,"	94.36",177.19
Nicotine,-5.546,162.236,1.163,0,2,-0.067,16.13,165.62
o-Cresol glycidyl ether,-7.588,164.204,2.17,0,2,-2.267,"	21.76",158.16
Oxprenolol,-6.369,265.353,2.168,2,4,-2.63,50.72,267.35
Parathion,-7.28,291.26,3.315,0,2,-4.513,70.83,238.28
Prednisolone,-7.906,360.45,1.273,3,5,-3.46,"	94.83",336.88
Progesterone,-5.255,314.469,4.149,0,2,-5.627,"	34.14",319.07
Propoxur,-6.324,209.245,2.086,1,2,-2.289,"	47.56",199.91
Propanolol,-6.306,259.349,2.584,2,3,-3.7,41.49,257.82
Propanolol-HCl,-7.879,295.81,2.584,2,3,-4.244,41.49,257.82
Raffinose,-8.208,504.438,-6.3,11,16,0.692,268.68,415.7
Sufentanil,-6.894,386.55,3.605,0,3,-4.087,32.78,372.9
Terbinafine,-9.556,291.438,5.527,0,1,-6.313,3.24,306.73
Testosterone,-5.856,288.431,3.365,1,2,-4.364,37.3,291.54
Theophylline,-7.125,180.167,-0.769,1,3,-0.961,69.3,150.69
Triamcinolone,-8.956,394.439,0.242,4,6,-3.135,115.06,349.53
Triamcinolone acetonide,-8.251,434.504,1.944,2,6,-4.519,93.06,390.25
Triclosan,-7.269,289.54,4.982,1,1,-5.275,29.46,213.06
Trimethylamine,-7.284,59.112,0.19,0,1,0.902,3.24,75.1
Urea,-7.317,60.056,-1.364,2,1,0.552,69.11,54.2
Water,-6.751,18.015,-0.652,1,1,0.531,25.3,19.33