Compound,LogKp,MW,LogP,HBD,HBA,LogS
2-Ethylhexanol,-7.687,130.231,2.504,1,1,-2.332
Ethyl 3-ethoxypropionate,-6.669,146.186,0.699,0,2,-0.451
Benzyl nicotinate,-5.348,213.236,2.484,0,2,-2.391
L-alanyl-L-tryptophan,-8.38,275.308,-1.625,4,4,-2.892
Amobarbital,-6.201,226.276,1.893,2,3,-3.091
Histidine,-7.812,155.157,-3.616,3,4,-0.444
Triclosan,-7.269,289.54,4.982,1,1,-5.275
Indomethacin,-6.997,357.79,3.53,1,4,-4.252
Propanolol-HCl,-7.879,295.81,2.584,2,3,-4.244